<?xml version="1.0" encoding="UTF-8"?>

<!-- generated on 20-04-2018 11:49:36 by SUMO gui Version 0.32.0
<?xml version="1.0" encoding="UTF-8"?>

<configuration xmlns:xsi="http://www.w3.org/2001/XMLSchema-instance" xsi:noNamespaceSchemaLocation="http://sumo.dlr.de/xsd/sumoConfiguration.xsd">

    <input>
        <net-file value="data/cross.net.xml"/>
        <route-files value="data/cross.rou.xml"/>
        <additional-files value="data/cross.det.xml"/>
    </input>

    <output>
        <tripinfo-output value="tripinfo.xml"/>
    </output>

    <time>
        <begin value="0"/>
    </time>

    <report>
        <verbose value="true"/>
        <no-step-log value="true"/>
    </report>

    <traci_server>
        <remote-port value="59423"/>
    </traci_server>

</configuration>
-->

<detector xmlns:xsi="http://www.w3.org/2001/XMLSchema-instance" xsi:noNamespaceSchemaLocation="http://sumo.dlr.de/xsd/det_e1_file.xsd">
    <interval begin="0.00" end="30.00" id="0" nVehContrib="0" flow="0.00" occupancy="0.00" speed="-1.00" length="-1.00" nVehEntered="0"/>
    <interval begin="30.00" end="60.00" id="0" nVehContrib="3" flow="360.00" occupancy="3.01" speed="16.61" length="5.00" nVehEntered="3"/>
    <interval begin="60.00" end="90.00" id="0" nVehContrib="0" flow="0.00" occupancy="0.00" speed="-1.00" length="-1.00" nVehEntered="0"/>
    <interval begin="90.00" end="120.00" id="0" nVehContrib="2" flow="240.00" occupancy="2.01" speed="16.60" length="5.00" nVehEntered="2"/>
    <interval begin="120.00" end="150.00" id="0" nVehContrib="1" flow="120.00" occupancy="1.02" speed="16.28" length="5.00" nVehEntered="1"/>
    <interval begin="150.00" end="180.00" id="0" nVehContrib="1" flow="120.00" occupancy="1.01" speed="16.58" length="5.00" nVehEntered="1"/>
    <interval begin="180.00" end="210.00" id="0" nVehContrib="5" flow="600.00" occupancy="5.31" speed="15.72" length="5.00" nVehEntered="5"/>
    <interval begin="210.00" end="240.00" id="0" nVehContrib="4" flow="480.00" occupancy="4.94" speed="13.65" length="5.00" nVehEntered="4"/>
    <interval begin="240.00" end="270.00" id="0" nVehContrib="3" flow="360.00" occupancy="4.46" speed="11.23" length="5.00" nVehEntered="3"/>
    <interval begin="270.00" end="300.00" id="0" nVehContrib="3" flow="360.00" occupancy="4.04" speed="12.40" length="5.00" nVehEntered="3"/>
    <interval begin="300.00" end="330.00" id="0" nVehContrib="3" flow="360.00" occupancy="4.01" speed="12.72" length="5.00" nVehEntered="3"/>
    <interval begin="330.00" end="360.00" id="0" nVehContrib="1" flow="120.00" occupancy="1.93" speed="14.19" length="5.00" nVehEntered="2"/>
    <interval begin="360.00" end="390.00" id="0" nVehContrib="2" flow="240.00" occupancy="1.43" speed="15.27" length="5.00" nVehEntered="1"/>
    <interval begin="390.00" end="420.00" id="0" nVehContrib="1" flow="120.00" occupancy="1.05" speed="15.85" length="5.00" nVehEntered="1"/>
    <interval begin="420.00" end="450.00" id="0" nVehContrib="0" flow="0.00" occupancy="0.00" speed="-1.00" length="-1.00" nVehEntered="0"/>
    <interval begin="450.00" end="480.00" id="0" nVehContrib="0" flow="0.00" occupancy="0.00" speed="-1.00" length="-1.00" nVehEntered="0"/>
    <interval begin="480.00" end="510.00" id="0" nVehContrib="1" flow="120.00" occupancy="1.01" speed="16.48" length="5.00" nVehEntered="1"/>
    <interval begin="510.00" end="540.00" id="0" nVehContrib="0" flow="0.00" occupancy="0.00" speed="-1.00" length="-1.00" nVehEntered="0"/>
    <interval begin="540.00" end="570.00" id="0" nVehContrib="2" flow="240.00" occupancy="2.04" speed="16.36" length="5.00" nVehEntered="2"/>
    <interval begin="570.00" end="600.00" id="0" nVehContrib="1" flow="120.00" occupancy="1.02" speed="16.38" length="5.00" nVehEntered="1"/>
    <interval begin="600.00" end="630.00" id="0" nVehContrib="2" flow="240.00" occupancy="2.03" speed="16.44" length="5.00" nVehEntered="2"/>
    <interval begin="630.00" end="660.00" id="0" nVehContrib="1" flow="120.00" occupancy="1.02" speed="16.41" length="5.00" nVehEntered="1"/>
    <interval begin="660.00" end="690.00" id="0" nVehContrib="2" flow="240.00" occupancy="2.03" speed="16.41" length="5.00" nVehEntered="2"/>
    <interval begin="690.00" end="720.00" id="0" nVehContrib="1" flow="120.00" occupancy="1.01" speed="16.50" length="5.00" nVehEntered="1"/>
    <interval begin="720.00" end="750.00" id="0" nVehContrib="1" flow="120.00" occupancy="1.02" speed="16.40" length="5.00" nVehEntered="1"/>
    <interval begin="750.00" end="780.00" id="0" nVehContrib="2" flow="240.00" occupancy="2.02" speed="16.54" length="5.00" nVehEntered="2"/>
    <interval begin="780.00" end="810.00" id="0" nVehContrib="1" flow="120.00" occupancy="1.06" speed="15.65" length="5.00" nVehEntered="1"/>
    <interval begin="810.00" end="840.00" id="0" nVehContrib="0" flow="0.00" occupancy="0.00" speed="-1.00" length="-1.00" nVehEntered="0"/>
    <interval begin="840.00" end="870.00" id="0" nVehContrib="3" flow="360.00" occupancy="3.04" speed="16.46" length="5.00" nVehEntered="3"/>
    <interval begin="870.00" end="900.00" id="0" nVehContrib="1" flow="120.00" occupancy="1.01" speed="16.58" length="5.00" nVehEntered="1"/>
    <interval begin="900.00" end="930.00" id="0" nVehContrib="2" flow="240.00" occupancy="2.06" speed="16.19" length="5.00" nVehEntered="2"/>
    <interval begin="930.00" end="960.00" id="0" nVehContrib="2" flow="240.00" occupancy="2.15" speed="15.51" length="5.00" nVehEntered="2"/>
    <interval begin="960.00" end="990.00" id="0" nVehContrib="1" flow="120.00" occupancy="1.01" speed="16.53" length="5.00" nVehEntered="1"/>
    <interval begin="990.00" end="1020.00" id="0" nVehContrib="2" flow="240.00" occupancy="2.05" speed="16.28" length="5.00" nVehEntered="2"/>
    <interval begin="1020.00" end="1050.00" id="0" nVehContrib="4" flow="480.00" occupancy="4.12" speed="16.21" length="5.00" nVehEntered="4"/>
    <interval begin="1050.00" end="1080.00" id="0" nVehContrib="1" flow="120.00" occupancy="1.01" speed="16.57" length="5.00" nVehEntered="1"/>
    <interval begin="1080.00" end="1110.00" id="0" nVehContrib="3" flow="360.00" occupancy="3.04" speed="16.46" length="5.00" nVehEntered="3"/>
    <interval begin="1110.00" end="1140.00" id="0" nVehContrib="1" flow="120.00" occupancy="1.09" speed="15.36" length="5.00" nVehEntered="1"/>
    <interval begin="1140.00" end="1170.00" id="0" nVehContrib="0" flow="0.00" occupancy="0.00" speed="-1.00" length="-1.00" nVehEntered="0"/>
    <interval begin="1170.00" end="1200.00" id="0" nVehContrib="2" flow="240.00" occupancy="2.04" speed="16.37" length="5.00" nVehEntered="2"/>
    <interval begin="1200.00" end="1230.00" id="0" nVehContrib="3" flow="360.00" occupancy="3.18" speed="15.73" length="5.00" nVehEntered="3"/>
    <interval begin="1230.00" end="1260.00" id="0" nVehContrib="2" flow="240.00" occupancy="2.02" speed="16.52" length="5.00" nVehEntered="2"/>
    <interval begin="1260.00" end="1290.00" id="0" nVehContrib="1" flow="120.00" occupancy="1.11" speed="14.99" length="5.00" nVehEntered="1"/>
    <interval begin="1290.00" end="1320.00" id="0" nVehContrib="2" flow="240.00" occupancy="2.11" speed="15.83" length="5.00" nVehEntered="2"/>
    <interval begin="1320.00" end="1350.00" id="0" nVehContrib="0" flow="0.00" occupancy="0.00" speed="-1.00" length="-1.00" nVehEntered="0"/>
    <interval begin="1350.00" end="1380.00" id="0" nVehContrib="1" flow="120.00" occupancy="1.01" speed="16.42" length="5.00" nVehEntered="1"/>
    <interval begin="1380.00" end="1410.00" id="0" nVehContrib="0" flow="0.00" occupancy="0.00" speed="-1.00" length="-1.00" nVehEntered="0"/>
    <interval begin="1410.00" end="1440.00" id="0" nVehContrib="1" flow="120.00" occupancy="1.01" speed="16.44" length="5.00" nVehEntered="1"/>
    <interval begin="1440.00" end="1470.00" id="0" nVehContrib="2" flow="240.00" occupancy="2.03" speed="16.43" length="5.00" nVehEntered="2"/>
    <interval begin="1470.00" end="1500.00" id="0" nVehContrib="2" flow="240.00" occupancy="2.03" speed="16.40" length="5.00" nVehEntered="2"/>
    <interval begin="1500.00" end="1530.00" id="0" nVehContrib="1" flow="120.00" occupancy="1.02" speed="16.31" length="5.00" nVehEntered="1"/>
    <interval begin="1530.00" end="1560.00" id="0" nVehContrib="1" flow="120.00" occupancy="1.02" speed="16.38" length="5.00" nVehEntered="1"/>
    <interval begin="1560.00" end="1590.00" id="0" nVehContrib="2" flow="240.00" occupancy="2.02" speed="16.48" length="5.00" nVehEntered="2"/>
    <interval begin="1590.00" end="1620.00" id="0" nVehContrib="3" flow="360.00" occupancy="3.12" speed="16.04" length="5.00" nVehEntered="3"/>
    <interval begin="1620.00" end="1650.00" id="0" nVehContrib="3" flow="360.00" occupancy="3.27" speed="15.30" length="5.00" nVehEntered="3"/>
    <interval begin="1650.00" end="1680.00" id="0" nVehContrib="0" flow="0.00" occupancy="0.00" speed="-1.00" length="-1.00" nVehEntered="0"/>
    <interval begin="1680.00" end="1710.00" id="0" nVehContrib="0" flow="0.00" occupancy="0.11" speed="-1.00" length="-1.00" nVehEntered="1"/>
    <interval begin="1710.00" end="1740.00" id="0" nVehContrib="1" flow="120.00" occupancy="0.89" speed="16.63" length="5.00" nVehEntered="0"/>
    <interval begin="1740.00" end="1770.00" id="0" nVehContrib="0" flow="0.00" occupancy="0.00" speed="-1.00" length="-1.00" nVehEntered="0"/>
    <interval begin="1770.00" end="1800.00" id="0" nVehContrib="1" flow="120.00" occupancy="1.01" speed="16.44" length="5.00" nVehEntered="1"/>
    <interval begin="1800.00" end="1830.00" id="0" nVehContrib="1" flow="120.00" occupancy="1.00" speed="16.61" length="5.00" nVehEntered="1"/>
    <interval begin="1830.00" end="1860.00" id="0" nVehContrib="1" flow="120.00" occupancy="1.01" speed="16.43" length="5.00" nVehEntered="1"/>
    <interval begin="1860.00" end="1890.00" id="0" nVehContrib="1" flow="120.00" occupancy="1.02" speed="16.41" length="5.00" nVehEntered="1"/>
    <interval begin="1890.00" end="1920.00" id="0" nVehContrib="3" flow="360.00" occupancy="3.14" speed="15.96" length="5.00" nVehEntered="3"/>
    <interval begin="1920.00" end="1950.00" id="0" nVehContrib="2" flow="240.00" occupancy="2.22" speed="15.01" length="5.00" nVehEntered="2"/>
    <interval begin="1950.00" end="1980.00" id="0" nVehContrib="3" flow="360.00" occupancy="3.07" speed="16.28" length="5.00" nVehEntered="3"/>
    <interval begin="1980.00" end="2010.00" id="0" nVehContrib="1" flow="120.00" occupancy="1.01" speed="16.45" length="5.00" nVehEntered="1"/>
    <interval begin="2010.00" end="2040.00" id="0" nVehContrib="2" flow="240.00" occupancy="2.01" speed="16.55" length="5.00" nVehEntered="2"/>
    <interval begin="2040.00" end="2070.00" id="0" nVehContrib="0" flow="0.00" occupancy="0.00" speed="-1.00" length="-1.00" nVehEntered="0"/>
    <interval begin="2070.00" end="2100.00" id="0" nVehContrib="0" flow="0.00" occupancy="0.00" speed="-1.00" length="-1.00" nVehEntered="0"/>
    <interval begin="2100.00" end="2114.00" id="0" nVehContrib="0" flow="0.00" occupancy="0.00" speed="-1.00" length="-1.00" nVehEntered="0"/>
</detector>
